 Gaussian 16, Revision A.03,
 Gaussian 16:  ES64L-G16RevA.03 25-Dec-2016

 ----------------------------------------------------------------------
 #p b3lyp empiricaldispersion=gd3bj 6-31g scrf=(pcm,solvent=water) opt
 freq=noraman
 ----------------------------------------------------------------------

 -------------------------
 Glutamic Acid Nitro-Anion
 -------------------------
 Symbolic Z-matrix:
 Charge =  2 Multiplicity = 3

 SCF Done:  E(UB3LYP) =  -2079.40985242     A.U. after   50 cycles
 SCF Done:  E(UB3LYP) =  -2079.43198714     A.U. after   32 cycles
 SCF Done:  E(UB3LYP) =  -2079.43750947     A.U. after   31 cycles
 SCF Done:  E(UB3LYP) =  -2079.43801480     A.U. after   29 cycles
 SCF Done:  E(UB3LYP) =  -2079.43800130     A.U. after   30 cycles
 SCF Done:  E(UB3LYP) =  -2079.43803331     A.U. after   22 cycles
 SCF Done:  E(UB3LYP) =  -2079.43803325     A.U. after   27 cycles
 Optimization completed.
    -- Stationary point found.

 The electronic state is 3-A.
 Alpha  occ. eigenvalues -- -299.95079 -35.92489 -31.35085 -31.34852 -31.34640
 Alpha  occ. eigenvalues --  -14.41947 -14.41944 -10.28150 -10.28117 -10.27821
 Alpha  occ. eigenvalues --  -10.27821 -10.25018 -10.25017 -10.24513 -10.24512
 Alpha  occ. eigenvalues --  -10.23428 -10.23427 -10.22865 -10.22807  -4.17110
 Alpha  occ. eigenvalues --   -2.76355  -2.76007  -2.75650  -1.03260  -1.00570
 Alpha  occ. eigenvalues --   -0.89812  -0.85572  -0.85476  -0.79917  -0.79372
 Alpha  occ. eigenvalues --   -0.70635  -0.69621  -0.68929  -0.65350  -0.60166
 Alpha  occ. eigenvalues --   -0.59180  -0.56386  -0.53530  -0.52817  -0.51820
 Alpha  occ. eigenvalues --   -0.48806  -0.48353  -0.48335  -0.47908  -0.46810
 Alpha  occ. eigenvalues --   -0.44799  -0.44550  -0.42811  -0.42653  -0.40268
 Alpha  occ. eigenvalues --   -0.39903  -0.39824  -0.38930  -0.38529  -0.37278
 Alpha  occ. eigenvalues --   -0.36956  -0.34106  -0.33854  -0.31307  -0.28737
 Alpha  occ. eigenvalues --   -0.27214
 Alpha virt. eigenvalues --   -0.10734  -0.09398  -0.05349  -0.04837  -0.02016
 Alpha virt. eigenvalues --    0.02705   0.03640   0.04893   0.06781   0.08666
 Alpha virt. eigenvalues --    0.08893   0.10728   0.11790   0.12359   0.14445

  Beta  occ. eigenvalues -- -299.95021 -35.88085 -31.31371 -31.31225 -31.31174
  Beta  occ. eigenvalues --  -14.41765 -14.41762 -10.28157 -10.28124 -10.27825
  Beta  occ. eigenvalues --  -10.27824 -10.25013 -10.25012 -10.24522 -10.24521
  Beta  occ. eigenvalues --  -10.23411 -10.23411 -10.22864 -10.22806  -4.07255
  Beta  occ. eigenvalues --   -2.65820  -2.65484  -2.65352  -1.03074  -1.00359
  Beta  occ. eigenvalues --   -0.89762  -0.85513  -0.85447  -0.79881  -0.79339
  Beta  occ. eigenvalues --   -0.70584  -0.69580  -0.68860  -0.65214  -0.60040
  Beta  occ. eigenvalues --   -0.58989  -0.56329  -0.53234  -0.52714  -0.51756
  Beta  occ. eigenvalues --   -0.48629  -0.48084  -0.47366  -0.46521  -0.45724
  Beta  occ. eigenvalues --   -0.44750  -0.44254  -0.41258  -0.40398  -0.38671
  Beta  occ. eigenvalues --   -0.37583  -0.36238  -0.35774  -0.34792  -0.34179
  Beta  occ. eigenvalues --   -0.33387  -0.32854  -0.28667  -0.27171
  Beta virt. eigenvalues --   -0.12823  -0.10599  -0.10588  -0.09388  -0.04823
  Beta virt. eigenvalues --   -0.04140  -0.01991   0.02731   0.03886   0.05201
  Beta virt. eigenvalues --    0.07077   0.08686   0.08925   0.10852   0.11843

 Mulliken charges and spin densities:
               1          2
     1  C   -0.131392   0.008652
     2  C   -0.111961  -0.007235
     3  C    0.135273   0.003078
     4  C    0.259463  -0.000093
     5  C    0.124083  -0.010184
     6  C   -0.132990   0.000072
     7  C    0.259488  -0.000093
     8  C    0.135357   0.003087
     9  C   -0.133018   0.000069
    10  C   -0.111964  -0.007241
    11  H    0.204224   0.000252
    12  C   -0.131384   0.008657
    13  C    0.124164  -0.010198
    14  H    0.189223   0.000174
    15  H    0.198219   0.000332
    16  H    0.204225   0.000252
    17  H    0.223078   0.002868
    18  H    0.189227   0.000174
    19  H    0.198229   0.000332
    20  H    0.223104   0.002871
    21  N   -0.749883   0.042468
    22  N   -0.750187   0.042471
    23  Ni   1.585423   1.919236
 Sum of Mulliken charges =   2.00000   2.00000

 Dipole moment (field-independent basis, Debye):
    X=              0.0061    Y=            -10.7378    Z=             -0.4916  Tot=             10.7490
 Quadrupole moment (field-independent basis, Debye-Ang):
   XX=            -38.8276   YY=            -25.1988   ZZ=            -89.5184
   XY=             -0.0122   XZ=             -0.0050   YZ=              0.7545

 Normal termination of Gaussian 16 at Wed Feb 28 19:36:51 2018.

 -----------------------------------------------------------------
 #P Geom=AllCheck Guess=TCheck SCRF=Check GenChk UB3LYP/6-31G Freq
 -----------------------------------------------------------------

 Structure from the checkpoint file:  "/scratch/dhuang9_nickel_phenanthroline_freeze/Gau-154909.chk"
 -------------------------
 Glutamic Acid Nitro-Anion
 -------------------------
 Charge =  2 Multiplicity = 3

                         Standard orientation:
 ---------------------------------------------------------------------
 Center     Atomic      Atomic             Coordinates (Angstroms)
 Number     Number       Type             X           Y           Z
 ---------------------------------------------------------------------
      1          6           0       -3.462042    0.258381    0.057159
      2          6           0       -2.842932    1.498510    0.008958
      3          6           0       -1.427878    1.579922   -0.010718
      4          6           0       -0.715114    0.361983    0.015013
      5          6           0       -2.682234   -0.913824    0.069931
      6          6           0       -0.685537    2.810751   -0.056019
      7          6           0        0.714619    0.362496    0.015329
      8          6           0        1.426747    1.580804   -0.010990
      9          6           0        0.683692    2.811183   -0.056316
     10          6           0        2.841843    1.500112    0.008145
     11          1           0        3.430127    2.409640   -0.014683
     12          6           0        3.461666    0.260341    0.056866
     13          6           0        2.682490   -0.912231    0.070825
     14          1           0       -1.235249    3.743838   -0.089464
     15          1           0       -4.540074    0.174855    0.078895
     16          1           0       -3.431667    2.407769   -0.013024
     17          1           0       -3.133041   -1.896393    0.096660
     18          1           0        1.232830    3.744595   -0.090125
     19          1           0        4.539756    0.177422    0.078017
     20          1           0        3.133730   -1.894575    0.098503
     21          7           0       -1.343873   -0.855389    0.044843
     22          7           0        1.344077   -0.854390    0.046276
     23         28           0        0.001080   -2.288903   -0.063989
 ---------------------------------------------------------------------

 SCF Done:  E(UB3LYP) =  -2079.43803325     A.U. after    1 cycles
