 Gaussian 16, Revision A.03,
 Gaussian 16:  ES64L-G16RevA.03 25-Dec-2016

 ----------------------------------------------------------------------
 #p b3lyp empiricaldispersion=gd3bj 6-31g scrf=(pcm,solvent=water) opt
 freq=noraman
 ----------------------------------------------------------------------

 -------------------------
 Glutamic Acid Nitro-Anion
 -------------------------
 Symbolic Z-matrix:
 Charge = -1 Multiplicity = 1

 SCF Done:  E(RB3LYP) =  -758.655219439     A.U. after   22 cycles
 SCF Done:  E(RB3LYP) =  -758.705479491     A.U. after   17 cycles
 SCF Done:  E(RB3LYP) =  -758.755687253     A.U. after   16 cycles
 SCF Done:  E(RB3LYP) =  -758.790200258     A.U. after   15 cycles
 SCF Done:  E(RB3LYP) =  -758.832104190     A.U. after   15 cycles
 SCF Done:  E(RB3LYP) =  -758.838536532     A.U. after   14 cycles
 SCF Done:  E(RB3LYP) =  -758.840514259     A.U. after   14 cycles
 SCF Done:  E(RB3LYP) =  -758.839601280     A.U. after   13 cycles
 SCF Done:  E(RB3LYP) =  -758.842378956     A.U. after   12 cycles
 SCF Done:  E(RB3LYP) =  -758.842265030     A.U. after   12 cycles
 SCF Done:  E(RB3LYP) =  -758.845628844     A.U. after   11 cycles
 SCF Done:  E(RB3LYP) =  -758.845647101     A.U. after   10 cycles
 SCF Done:  E(RB3LYP) =  -758.845658771     A.U. after   10 cycles
 SCF Done:  E(RB3LYP) =  -758.845660611     A.U. after   10 cycles
 SCF Done:  E(RB3LYP) =  -758.845661873     A.U. after    9 cycles
 SCF Done:  E(RB3LYP) =  -758.845662189     A.U. after    8 cycles
 SCF Done:  E(RB3LYP) =  -758.845662258     A.U. after    8 cycles
 SCF Done:  E(RB3LYP) =  -758.845662285     A.U. after    8 cycles
 SCF Done:  E(RB3LYP) =  -758.845662313     A.U. after    6 cycles
 Optimization completed.
    -- Stationary point found.
 Normal termination of Gaussian 16 at Wed Feb 28 19:35:52 2018.

 -----------------------------------------------------------------
 #P Geom=AllCheck Guess=TCheck SCRF=Check GenChk RB3LYP/6-31G Freq
 -----------------------------------------------------------------

 Structure from the checkpoint file:  "/scratch/dhuang9_glut_nitro_anion_freeze/Gau-61747.chk"
 -------------------------
 Glutamic Acid Nitro-Anion
 -------------------------
 Charge = -1 Multiplicity = 1

                         Standard orientation:
 ---------------------------------------------------------------------
 Center     Atomic      Atomic             Coordinates (Angstroms)
 Number     Number       Type             X           Y           Z
 ---------------------------------------------------------------------
      1          6           0       -1.479046   -0.041447    0.236436
      2          1           0       -1.326406    0.960560   -0.190496
      3          1           0       -1.402114    0.102572    1.329123
      4          6           0       -0.361475   -0.992558   -0.217231
      5          1           0       -0.393063   -1.123795   -1.307440
      6          1           0       -0.507781   -1.981229    0.227198
      7          6           0        1.041006   -0.487307    0.187288
      8          1           0        1.040425   -0.328987    1.271963
      9          6           0        2.112824   -1.532315   -0.103395
     10          6           0       -2.823749   -0.563287   -0.152540
     11          1           0       -2.967427   -1.547275   -0.576988
     12          8           0        3.101164   -1.378766   -0.827339
     13          8           0        1.859546   -2.695806    0.573227
     14          1           0        2.548009   -3.374665    0.399337
     15          7           0        1.341852    0.765202   -0.488428
     16          1           0        0.902913    0.921963   -1.387747
     17          6           0        2.264791    1.702450   -0.114511
     18          8           0        2.484503    2.707187   -0.840025
     19          6           0        2.990408    1.483122    1.192260
     20          1           0        2.291974    1.397152    2.031619
     21          1           0        3.591955    0.568710    1.158839
     22          1           0        3.649888    2.332713    1.367480
     23          7           0       -3.912215    0.177990    0.012557
     24          8           0       -3.814592    1.402298    0.548493
     25          8           0       -5.118669   -0.277665   -0.349559
 ---------------------------------------------------------------------

 SCF Done:  E(RB3LYP) =  -758.845662313     A.U. after    1 cycles

 The electronic state is 1-A.
 Alpha  occ. eigenvalues --  -19.20505 -19.16203 -19.11650 -19.07131 -19.06630
 Alpha  occ. eigenvalues --  -14.45045 -14.36296 -10.34367 -10.30130 -10.25334
 Alpha  occ. eigenvalues --  -10.19281 -10.18528 -10.17723 -10.17159  -1.12643
 Alpha  occ. eigenvalues --   -1.07750  -1.04328  -1.03841  -0.93868  -0.90602
 Alpha  occ. eigenvalues --   -0.81170  -0.77838  -0.74568  -0.71906  -0.64167
 Alpha  occ. eigenvalues --   -0.61421  -0.59259  -0.53567  -0.51509  -0.50748
 Alpha  occ. eigenvalues --   -0.48494  -0.47444  -0.46209  -0.45340  -0.44773
 Alpha  occ. eigenvalues --   -0.43820  -0.42918  -0.41788  -0.40608  -0.39958
 Alpha  occ. eigenvalues --   -0.39263  -0.38080  -0.36887  -0.36008  -0.34459
 Alpha  occ. eigenvalues --   -0.34447  -0.32921  -0.29281  -0.26016  -0.25496
 Alpha  occ. eigenvalues --   -0.22518  -0.21234  -0.19360  -0.16395
 Alpha virt. eigenvalues --   -0.02159   0.01168   0.03219   0.06952   0.08889
 Alpha virt. eigenvalues --    0.09690   0.12987   0.13930   0.14874   0.16259
 Alpha virt. eigenvalues --    0.16746   0.16967   0.18686   0.19856   0.20815

 Mulliken charges:
               1
     1  C   -0.260608
     2  H    0.138242
     3  H    0.130312
     4  C   -0.279071
     5  H    0.151574
     6  H    0.171942
     7  C   -0.017544
     8  H    0.203792
     9  C    0.521911
    10  C    0.077780
    11  H    0.113600
    12  O   -0.446626
    13  O   -0.563093
    14  H    0.418212
    15  N   -0.602045
    16  H    0.343146
    17  C    0.513319
    18  O   -0.535861
    19  C   -0.489932
    20  H    0.183979
    21  H    0.182653
    22  H    0.173094
    23  N    0.041892
    24  O   -0.573903
    25  O   -0.596766
 Sum of Mulliken charges =  -1.00000

 Dipole moment (field-independent basis, Debye):
    X=             18.5076    Y=             -8.3020    Z=              2.6810  Tot=             20.4608
 Quadrupole moment (field-independent basis, Debye-Ang):
   XX=           -196.3288   YY=            -95.4702   ZZ=            -84.2687
   XY=             -3.6359   XZ=             13.5616   YZ=              2.9080

  Exact polarizability: 154.345   2.600 137.737   0.799   0.151  95.399
 Approx polarizability: 179.613   4.306 168.755  -6.340  -2.295 114.523

                      1                      2                      3
                      A                      A                      A
 Frequencies --     25.5143                30.7747                35.0732
 Red. masses --      5.7843                 4.5686                 7.6946
 Frc consts  --      0.0022                 0.0025                 0.0056
 IR Inten    --      1.0459                 2.2883                11.7566

                      4                      5                      6
                      A                      A                      A
 Frequencies --     54.1433                73.2123                94.8081
 Red. masses --      7.1389                 5.6214                 6.6785
 Frc consts  --      0.0123                 0.0178                 0.0354
 IR Inten    --      1.1431                 6.4780                 5.1806

                      7                      8                      9
                      A                      A                      A
 Frequencies --    109.1330               162.3161               170.4185
 Red. masses --      2.9953                 1.0881                 5.5919
 Frc consts  --      0.0210                 0.0169                 0.0957
 IR Inten    --      2.0539                 1.0248                 5.3627

                     10                     11                     12
                      A                      A                      A
 Frequencies --    203.1200               227.7762               240.6961
 Red. masses --      3.1416                 4.3049                 4.0367
 Frc consts  --      0.0764                 0.1316                 0.1378
 IR Inten    --      8.8751                 3.9503                 1.6241

                     13                     14                     15
                      A                      A                      A
 Frequencies --    320.2462               368.8675               392.4254
 Red. masses --      5.8651                 4.6019                 3.6978
 Frc consts  --      0.3544                 0.3689                 0.3355
 IR Inten    --      2.8420                17.1956                 2.9143

                     16                     17                     18
                      A                      A                      A
 Frequencies --    420.1088               532.0393               541.3733
 Red. masses --      6.1011                 2.3522                 2.0220
 Frc consts  --      0.6344                 0.3923                 0.3492
 IR Inten    --     18.5784                30.1843                38.9821

                     19                     20                     21
                      A                      A                      A
 Frequencies --    565.0039               592.5849               601.5289
 Red. masses --      3.9163                 3.7864                 1.4722
 Frc consts  --      0.7366                 0.7834                 0.3139
 IR Inten    --     58.3723                52.0450               156.8427

                     22                     23                     24
                      A                      A                      A
 Frequencies --    612.6207               644.0132               657.6611
 Red. masses --      1.1534                 6.2162                 2.9550
 Frc consts  --      0.2550                 1.5190                 0.7530
 IR Inten    --     40.1120                54.8398                 2.4170

                     25                     26                     27
                      A                      A                      A
 Frequencies --    682.3037               687.2295               719.7677
 Red. masses --      9.5187                 2.0928                 4.3330
 Frc consts  --      2.6109                 0.5824                 1.3226
 IR Inten    --     43.3196               216.7589                38.1254

                     28                     29                     30
                      A                      A                      A
 Frequencies --    792.9134               862.3720               909.9292
 Red. masses --      1.3878                 2.7733                 5.5325
 Frc consts  --      0.5141                 1.2152                 2.6989
 IR Inten    --      4.1050                 7.1893                22.8669

                     31                     32                     33
                      A                      A                      A
 Frequencies --    938.4766              1017.3873              1049.4161
 Red. masses --      6.7788                 2.0575                 2.1122
 Frc consts  --      3.5176                 1.2547                 1.3705
 IR Inten    --     91.1505                10.2256                46.6581

                     34                     35                     36
                      A                      A                      A
 Frequencies --   1060.4475              1086.1486              1099.4455
 Red. masses --      2.5266                 1.6929                 2.4374
 Frc consts  --      1.6740                 1.1767                 1.7359
 IR Inten    --     21.7774                22.5256               402.5931

                     37                     38                     39
                      A                      A                      A
 Frequencies --   1113.3171              1128.4780              1140.5578
 Red. masses --      2.6586                 3.6969                 2.6891
 Frc consts  --      1.9415                 2.7738                 2.0611
 IR Inten    --     72.8334               190.1922                70.5927

                     40                     41                     42
                      A                      A                      A
 Frequencies --   1177.0598              1235.5530              1293.7684
 Red. masses --      1.8618                 1.7970                 1.3101
 Frc consts  --      1.5198                 1.6163                 1.2920
 IR Inten    --      3.9916                 4.4503                15.0443

                     43                     44                     45
                      A                      A                      A
 Frequencies --   1322.0201              1327.5453              1355.1382
 Red. masses --      1.2619                 1.4280                 1.4026
 Frc consts  --      1.2995                 1.4828                 1.5176
 IR Inten    --     17.6256                22.6194                94.4523

                     46                     47                     48
                      A                      A                      A
 Frequencies --   1370.4890              1405.6042              1406.5087
 Red. masses --      1.4347                 1.6841                 2.1370
 Frc consts  --      1.5877                 1.9604                 2.4908
 IR Inten    --     56.6342                 3.2422               168.4743

                     49                     50                     51
                      A                      A                      A
 Frequencies --   1414.3152              1443.3397              1486.7907
 Red. masses --      1.8995                 1.4514                 1.6350
 Frc consts  --      2.2387                 1.7815                 2.1294
 IR Inten    --    105.1029               129.4269                24.4951

                     52                     53                     54
                      A                      A                      A
 Frequencies --   1511.1411              1522.7184              1526.0326
 Red. masses --      1.0705                 1.0475                 1.1210
 Frc consts  --      1.4403                 1.4310                 1.5381
 IR Inten    --     40.3134                22.7540                16.8511

                     55                     56                     57
                      A                      A                      A
 Frequencies --   1543.7572              1560.9537              1684.0181
 Red. masses --      1.1391                 5.4685                 4.6631
 Frc consts  --      1.5995                 7.8505                 7.7915
 IR Inten    --     25.8672               303.9728               561.0916

                     58                     59                     60
                      A                      A                      A
 Frequencies --   1726.5822              2964.0050              3029.1459
 Red. masses --      9.9272                 1.0721                 1.0829
 Frc consts  --     17.4362                 5.5493                 5.8542
 IR Inten    --    379.2948                80.6637                45.2050

                     61                     62                     63
                      A                      A                      A
 Frequencies --   3046.1445              3064.8817              3079.3857
 Red. masses --      1.0677                 1.0389                 1.0804
 Frc consts  --      5.8370                 5.7496                 6.0359
 IR Inten    --     41.2406                 2.5579                16.0049

                     64                     65                     66
                      A                      A                      A
 Frequencies --   3124.1800              3133.7653              3184.6538
 Red. masses --      1.0952                 1.0986                 1.0988
 Frc consts  --      6.2980                 6.3566                 6.5658
 IR Inten    --     33.4822                 9.3842                15.0321

                     67                     68                     69
                      A                      A                      A
 Frequencies --   3246.2004              3599.0311              3607.2745
 Red. masses --      1.0899                 1.0763                 1.0644
 Frc consts  --      6.7667                 8.2137                 8.1608
 IR Inten    --     20.1669                32.5617                75.7305

 - Thermochemistry -
 -------------------
 Temperature   298.150 Kelvin.  Pressure   1.00000 Atm.
 Atom     1 has atomic number  6 and mass  12.00000

 Molecular mass:   203.06680 amu.
 Principal axes and moments of inertia in atomic units:
                           1         2         3
     Eigenvalues --  1833.532126009.998707332.07527
           X            0.99991   0.00842   0.01011
           Y           -0.00857   0.99985   0.01489
           Z           -0.00998  -0.01498   0.99984
 This molecule is an asymmetric top.
 Rotational symmetry number  1.
 Warning -- assumption of classical behavior for rotation
           may cause significant error
 Rotational temperatures (Kelvin)      0.04724     0.01441     0.01181
 Rotational constants (GHZ):           0.98430     0.30029     0.24614
 Zero-point vibrational energy     504558.8 (Joules/Mol)
                                  120.59246 (Kcal/Mol)
 Warning -- explicit consideration of  22 degrees of freedom as
           vibrations may cause significant error
 Vibrational temperatures:     36.71    44.28    50.46    77.90   105.34
          (Kelvin)            136.41   157.02   233.54   245.19   292.24
                              327.72   346.31   460.76   530.72   564.61
                              604.44   765.49   778.92   812.91   852.60
                              865.47   881.42   926.59   946.23   981.68
                              988.77  1035.59  1140.83  1240.76  1309.19
                             1350.26  1463.79  1509.88  1525.75  1562.73
                             1581.86  1601.82  1623.63  1641.01  1693.53
                             1777.69  1861.44  1902.09  1910.04  1949.74
                             1971.83  2022.35  2023.65  2034.88  2076.64
                             2139.16  2174.19  2190.85  2195.62  2221.12
                             2245.86  2422.93  2484.17  4264.54  4358.27
                             4382.72  4409.68  4430.55  4495.00  4508.79
                             4582.01  4670.56  5178.20  5190.06

 Zero-point correction=                           0.192176 (Hartree/Particle)
 Thermal correction to Energy=                    0.207121
 Thermal correction to Enthalpy=                  0.208065
 Thermal correction to Gibbs Free Energy=         0.146865
 Sum of electronic and zero-point Energies=           -758.653486
 Sum of electronic and thermal Energies=              -758.638542
 Sum of electronic and thermal Enthalpies=            -758.637597
 Sum of electronic and thermal Free Energies=         -758.698797

                     E (Thermal)             CV                S
                      KCal/Mol        Cal/Mol-Kelvin    Cal/Mol-Kelvin
 Total                  129.970             52.351            128.805
 Electronic               0.000              0.000              0.000
 Translational            0.889              2.981             41.830
 Rotational               0.889              2.981             32.757
 Vibrational            128.193             46.389             54.218
 Vibration     1          0.593              1.985              6.151
 Vibration     2          0.594              1.984              5.779
 Vibration     3          0.594              1.982              5.520
 Vibration     4          0.596              1.976              4.660
 Vibration     5          0.599              1.967              4.065
 Vibration     6          0.603              1.953              3.558
 Vibration     7          0.606              1.942              3.284
 Vibration     8          0.622              1.889              2.523
 Vibration     9          0.626              1.879              2.431
 Vibration    10          0.639              1.835              2.105
 Vibration    11          0.651              1.799              1.896
 Vibration    12          0.658              1.778              1.798
 Vibration    13          0.706              1.635              1.309
 Vibration    14          0.741              1.536              1.084
 Vibration    15          0.760              1.486              0.991
 Vibration    16          0.783              1.427              0.892
 Vibration    17          0.887              1.179              0.583
 Vibration    18          0.896              1.159              0.562
 Vibration    19          0.921              1.107              0.514
 Vibration    20          0.950              1.048              0.463
 Vibration    21          0.960              1.029              0.447
 Vibration    22          0.972              1.005              0.428

 Optimization completed.
    -- Stationary point found.
 Normal termination of Gaussian 16 at Wed Feb 28 19:40:20 2018.
