 Gaussian 16, Revision A.03,
 Gaussian 16:  ES64L-G16RevA.03 25-Dec-2016

 ----------------------------------------------------------------------
 #p b3lyp empiricaldispersion=gd3bj 6-31g scrf=(pcm,solvent=water) opt
 freq=noraman
 ----------------------------------------------------------------------

 ---------------------------
 Glutamic Acid Nitro Rotamer
 ---------------------------
 Symbolic Z-matrix:
 Charge = -1 Multiplicity = 1

 SCF Done:  E(RB3LYP) =  -758.541979261     A.U. after   23 cycles
 SCF Done:  E(RB3LYP) =  -758.662833971     A.U. after   17 cycles
 SCF Done:  E(RB3LYP) =  -758.706782376     A.U. after   17 cycles
 SCF Done:  E(RB3LYP) =  -758.757438303     A.U. after   16 cycles
 SCF Done:  E(RB3LYP) =  -758.802145280     A.U. after   15 cycles
 SCF Done:  E(RB3LYP) =  -758.827599984     A.U. after   14 cycles
 SCF Done:  E(RB3LYP) =  -758.834060506     A.U. after   14 cycles
 SCF Done:  E(RB3LYP) =  -758.837709528     A.U. after   12 cycles
 SCF Done:  E(RB3LYP) =  -758.837689461     A.U. after   12 cycles
 SCF Done:  E(RB3LYP) =  -758.838967200     A.U. after   12 cycles
 SCF Done:  E(RB3LYP) =  -758.842139362     A.U. after   11 cycles
 SCF Done:  E(RB3LYP) =  -758.842491753     A.U. after   11 cycles
 SCF Done:  E(RB3LYP) =  -758.842626230     A.U. after   11 cycles
 SCF Done:  E(RB3LYP) =  -758.842665906     A.U. after   10 cycles
 SCF Done:  E(RB3LYP) =  -758.842694150     A.U. after   10 cycles
 SCF Done:  E(RB3LYP) =  -758.842701650     A.U. after   10 cycles
 SCF Done:  E(RB3LYP) =  -758.842703373     A.U. after    9 cycles
 SCF Done:  E(RB3LYP) =  -758.842703644     A.U. after    8 cycles
 SCF Done:  E(RB3LYP) =  -758.842703671     A.U. after    8 cycles
 Optimization completed.
    -- Stationary point found.
 Normal termination of Gaussian 16 at Wed Feb 28 21:46:00 2018.

 -----------------------------------------------------------------
 #P Geom=AllCheck Guess=TCheck SCRF=Check GenChk RB3LYP/6-31G Freq
 -----------------------------------------------------------------

 Structure from the checkpoint file:  "/scratch/dhuang9_glut_nitro_anion_rot_freeze/Gau-163483.chk"
 ---------------------------
 Glutamic Acid Nitro Rotamer
 ---------------------------
 Charge = -1 Multiplicity = 1

                         Standard orientation:
 ---------------------------------------------------------------------
 Center     Atomic      Atomic             Coordinates (Angstroms)
 Number     Number       Type             X           Y           Z
 ---------------------------------------------------------------------
      1          6           0       -1.282351   -0.277539    0.447622
      2          1           0       -1.164369    0.813951    0.385775
      3          1           0       -1.366454   -0.489017    1.528701
      4          6           0       -0.034110   -0.976416   -0.106625
      5          1           0        0.082794   -0.748749   -1.170259
      6          1           0       -0.146655   -2.062735   -0.031469
      7          6           0        1.250025   -0.599634    0.677386
      8          1           0        1.131290   -1.014320    1.684342
      9          6           0        2.478489   -1.276903    0.084570
     10          6           0       -2.510759   -0.703878   -0.288861
     11          1           0       -2.506052   -1.500526   -1.019903
     12          8           0        3.481203   -0.714391   -0.366836
     13          8           0        2.339728   -2.639343    0.106625
     14          1           0        3.121381   -3.089902   -0.282269
     15          7           0        1.474891    0.830762    0.869624
     16          7           0       -3.676791   -0.111910   -0.061581
     17          8           0       -3.763015    0.872683    0.843265
     18          8           0       -4.780863   -0.482830   -0.723385
     19          1           0        1.630574    1.132160    1.823207
     20          6           0        1.607290    1.835337   -0.051606
     21          8           0        1.876118    3.002841    0.339044
     22          6           0        1.392286    1.532030   -1.514713
     23          1           0        1.912960    0.626813   -1.830615
     24          1           0        0.324284    1.411977   -1.727035
     25          1           0        1.762958    2.378719   -2.093127
 ---------------------------------------------------------------------

 SCF Done:  E(RB3LYP) =  -758.842703671     A.U. after    1 cycles

 The electronic state is 1-A.
 Alpha  occ. eigenvalues --  -19.20544 -19.16257 -19.11518 -19.07114 -19.06618
 Alpha  occ. eigenvalues --  -14.45025 -14.36247 -10.34512 -10.30073 -10.25435
 Alpha  occ. eigenvalues --  -10.18973 -10.18228 -10.17628 -10.17142  -1.12709
 Alpha  occ. eigenvalues --   -1.07733  -1.04292  -1.03832  -0.93412  -0.90582
 Alpha  occ. eigenvalues --   -0.80986  -0.77824  -0.74707  -0.71837  -0.64120
 Alpha  occ. eigenvalues --   -0.62216  -0.57666  -0.53288  -0.51733  -0.50957
 Alpha  occ. eigenvalues --   -0.48551  -0.47173  -0.46231  -0.45686  -0.44410
 Alpha  occ. eigenvalues --   -0.43644  -0.43086  -0.41754  -0.40891  -0.39807
 Alpha  occ. eigenvalues --   -0.39093  -0.38038  -0.36585  -0.35935  -0.34342
 Alpha  occ. eigenvalues --   -0.33969  -0.32952  -0.29308  -0.25877  -0.25430
 Alpha  occ. eigenvalues --   -0.22509  -0.21221  -0.19344  -0.16384
 Alpha virt. eigenvalues --   -0.02154   0.01083   0.03246   0.07057   0.07551
 Alpha virt. eigenvalues --    0.10420   0.13559   0.14071   0.14968   0.15727
 Alpha virt. eigenvalues --    0.17318   0.18708   0.18923   0.19728   0.19966

 Mulliken charges:
               1
     1  C   -0.261398
     2  H    0.138738
     3  H    0.128254
     4  C   -0.263311
     5  H    0.149805
     6  H    0.166057
     7  C   -0.025583
     8  H    0.210860
     9  C    0.522715
    10  C    0.076313
    11  H    0.113132
    12  O   -0.446382
    13  O   -0.562144
    14  H    0.418084
    15  N   -0.608762
    16  N    0.041927
    17  O   -0.574235
    18  O   -0.597100
    19  H    0.347117
    20  C    0.515833
    21  O   -0.539625
    22  C   -0.485096
    23  H    0.176147
    24  H    0.189188
    25  H    0.169464
 Sum of Mulliken charges =  -1.00000

 Dipole moment (field-independent basis, Debye):
    X=             18.2697    Y=             -7.6235    Z=             -0.1981  Tot=             19.7975
 Quadrupole moment (field-independent basis, Debye-Ang):
   XX=           -186.4260   YY=            -97.9462   ZZ=            -80.3408
   XY=            -13.9129   XZ=              0.2136   YZ=             -4.6984

  Exact polarizability: 145.871  -1.414 136.955   0.984  10.096 103.749
 Approx polarizability: 172.045   1.966 170.235  -0.613  17.589 121.707

                      1                      2                      3
                      A                      A                      A
 Frequencies --     31.1428                49.1448                52.3705
 Red. masses --      6.5943                 8.9003                 6.8360
 Frc consts  --      0.0038                 0.0127                 0.0110
 IR Inten    --     10.3092                 2.7532                 1.3689

                      4                      5                      6
                      A                      A                      A
 Frequencies --     67.8389                90.1833                95.6590
 Red. masses --      6.8388                 3.4291                 6.2385
 Frc consts  --      0.0185                 0.0164                 0.0336
 IR Inten    --      3.5313                 1.7246                 4.7757

                      7                      8                      9
                      A                      A                      A
 Frequencies --    130.1951               179.1220               191.7603
 Red. masses --      4.2290                 2.6174                 1.5058
 Frc consts  --      0.0422                 0.0495                 0.0326
 IR Inten    --      6.2286                 4.6264                 6.1708

                     10                     11                     12
                      A                      A                      A
 Frequencies --    225.8540               252.1757               259.1562
 Red. masses --      2.8725                 4.8397                 2.9947
 Frc consts  --      0.0863                 0.1813                 0.1185
 IR Inten    --      1.7914                 2.9948                 3.4194

                     13                     14                     15
                      A                      A                      A
 Frequencies --    309.5297               377.3607               402.0680
 Red. masses --      5.2790                 4.4120                 4.7358
 Frc consts  --      0.2980                 0.3702                 0.4511
 IR Inten    --      2.6214                15.4820                 4.3150

                     16                     17                     18
                      A                      A                      A
 Frequencies --    404.8610               514.9458               542.0907
 Red. masses --      5.5453                 3.6192                 1.6344
 Frc consts  --      0.5355                 0.5654                 0.2830
 IR Inten    --     17.8528                32.9134                34.0623

                     19                     20                     21
                      A                      A                      A
 Frequencies --    564.6853               587.4653               615.9639
 Red. masses --      5.0124                 1.3061                 1.1495
 Frc consts  --      0.9417                 0.2656                 0.2570
 IR Inten    --     61.1320               149.3273                39.3255

                     22                     23                     24
                      A                      A                      A
 Frequencies --    628.4355               647.8768               682.8580
 Red. masses --      4.6380                 4.8373                 9.1355
 Frc consts  --      1.0792                 1.1963                 2.5098
 IR Inten    --     42.4834                44.8990                32.9875

                     25                     26                     27
                      A                      A                      A
 Frequencies --    692.5848               699.3996               739.7328
 Red. masses --      1.7004                 4.4402                 2.4229
 Frc consts  --      0.4806                 1.2797                 0.7811
 IR Inten    --    188.5292                70.9515                 5.7853

                     28                     29                     30
                      A                      A                      A
 Frequencies --    793.4713               838.1678               897.0622
 Red. masses --      4.3504                 1.5342                 4.1869
 Frc consts  --      1.6138                 0.6350                 1.9851
 IR Inten    --      8.3368                10.7915                20.2606

                     31                     32                     33
                      A                      A                      A
 Frequencies --    939.8761               990.8073              1053.2134
 Red. masses --      6.7424                 3.3669                 1.5201
 Frc consts  --      3.5092                 1.9474                 0.9935
 IR Inten    --     85.4473                28.3474                 8.1309

                     34                     35                     36
                      A                      A                      A
 Frequencies --   1064.4819              1091.8003              1095.0055
 Red. masses --      3.3960                 1.7974                 2.0447
 Frc consts  --      2.2672                 1.2623                 1.4445
 IR Inten    --     65.9298                63.3606               270.4590

                     37                     38                     39
                      A                      A                      A
 Frequencies --   1111.9289              1125.9685              1149.0484
 Red. masses --      2.0608                 4.2552                 3.2751
 Frc consts  --      1.5012                 3.1785                 2.5477
 IR Inten    --    182.6057               202.6870                37.9295

                     40                     41                     42
                      A                      A                      A
 Frequencies --   1196.5018              1206.2469              1293.7497
 Red. masses --      3.2277                 1.2549                 1.3137
 Frc consts  --      2.7226                 1.0758                 1.2955
 IR Inten    --     29.2625                 8.7056                 9.5934

                     43                     44                     45
                      A                      A                      A
 Frequencies --   1318.0714              1323.3877              1357.4331
 Red. masses --      1.2307                 1.4535                 1.5831
 Frc consts  --      1.2598                 1.4998                 1.7187
 IR Inten    --     28.4313                14.8266               195.4045

                     46                     47                     48
                      A                      A                      A
 Frequencies --   1373.2313              1394.2389              1412.1819
 Red. masses --      1.4465                 2.6685                 1.5527
 Frc consts  --      1.6072                 3.0563                 1.8244
 IR Inten    --     42.8446                62.6768                 9.3328

                     49                     50                     51
                      A                      A                      A
 Frequencies --   1437.1000              1460.1616              1501.2034
 Red. masses --      1.2307                 1.6229                 1.5403
 Frc consts  --      1.4975                 2.0386                 2.0452
 IR Inten    --     34.0161               174.7025                37.9493

                     52                     53                     54
                      A                      A                      A
 Frequencies --   1510.0620              1529.0187              1533.4420
 Red. masses --      1.2289                 1.0738                 1.1068
 Frc consts  --      1.6511                 1.4791                 1.5335
 IR Inten    --     27.3260                10.1170                49.8929

                     55                     56                     57
                      A                      A                      A
 Frequencies --   1556.1655              1561.0585              1677.1180
 Red. masses --      1.2542                 3.4477                 4.0175
 Frc consts  --      1.7895                 4.9501                 6.6578
 IR Inten    --     64.5421               248.1605               529.6625

                     58                     59                     60
                      A                      A                      A
 Frequencies --   1724.7535              2967.5843              3030.7171
 Red. masses --      9.6436                 1.0719                 1.0833
 Frc consts  --     16.9023                 5.5617                 5.8626
 IR Inten    --    370.6878                82.4741                44.7825

                     61                     62                     63
                      A                      A                      A
 Frequencies --   3073.3224              3082.2416              3086.4949
 Red. masses --      1.0415                 1.0722                 1.0687
 Frc consts  --      5.7961                 6.0015                 5.9984
 IR Inten    --      2.6200                15.5723                20.8009

                     64                     65                     66
                      A                      A                      A
 Frequencies --   3130.3804              3155.2850              3187.0337
 Red. masses --      1.1015                 1.0932                 1.1018
 Frc consts  --      6.3598                 6.4126                 6.5934
 IR Inten    --     47.9844                 8.9345                11.9616

                     67                     68                     69
                      A                      A                      A
 Frequencies --   3247.0820              3604.7408              3610.3573
 Red. masses --      1.0897                 1.0645                 1.0761
 Frc consts  --      6.7695                 8.1494                 8.2642
 IR Inten    --     20.2647                75.6161                39.0426

 - Thermochemistry -
 -------------------
 Temperature   298.150 Kelvin.  Pressure   1.00000 Atm.
 Atom     1 has atomic number  6 and mass  12.00000

 Molecular mass:   203.06680 amu.
 Principal axes and moments of inertia in atomic units:
                           1         2         3
     Eigenvalues --  1862.783115410.318666607.79472
           X            1.00000   0.00048  -0.00292
           Y           -0.00052   0.99988  -0.01556
           Z            0.00291   0.01556   0.99987
 This molecule is an asymmetric top.
 Rotational symmetry number  1.
 Warning -- assumption of classical behavior for rotation
           may cause significant error
 Rotational temperatures (Kelvin)      0.04650     0.01601     0.01311
 Rotational constants (GHZ):           0.96884     0.33357     0.27312
 Zero-point vibrational energy     506772.0 (Joules/Mol)
                                  121.12141 (Kcal/Mol)
 Warning -- explicit consideration of  21 degrees of freedom as
           vibrations may cause significant error
 Vibrational temperatures:     44.81    70.71    75.35    97.61   129.75
          (Kelvin)            137.63   187.32   257.72   275.90   324.95
                              362.82   372.87   445.34   542.94   578.49
                              582.50   740.89   779.95   812.46   845.23
                              886.23   904.18   932.15   982.48   996.48
                             1006.28  1064.31  1141.63  1205.94  1290.67
                             1352.27  1425.55  1515.34  1531.55  1570.86
                             1575.47  1599.82  1620.02  1653.22  1721.50
                             1735.52  1861.42  1896.41  1904.06  1953.04
                             1975.77  2006.00  2031.81  2067.67  2100.85
                             2159.90  2172.64  2199.92  2206.28  2238.98
                             2246.01  2413.00  2481.54  4269.69  4360.53
                             4421.83  4434.66  4440.78  4503.92  4539.75
                             4585.43  4671.83  5186.42  5194.50

 Zero-point correction=                           0.193019 (Hartree/Particle)
 Thermal correction to Energy=                    0.207602
 Thermal correction to Enthalpy=                  0.208547
 Thermal correction to Gibbs Free Energy=         0.149464
 Sum of electronic and zero-point Energies=           -758.649684
 Sum of electronic and thermal Energies=              -758.635101
 Sum of electronic and thermal Enthalpies=            -758.634157
 Sum of electronic and thermal Free Energies=         -758.693240

                     E (Thermal)             CV                S
                      KCal/Mol        Cal/Mol-Kelvin    Cal/Mol-Kelvin
 Total                  130.272             52.066            124.350
 Electronic               0.000              0.000              0.000
 Translational            0.889              2.981             41.830
 Rotational               0.889              2.981             32.565
 Vibrational            128.495             46.105             49.955
 Vibration     1          0.594              1.983              5.755
 Vibration     2          0.595              1.978              4.852
 Vibration     3          0.596              1.977              4.726
 Vibration     4          0.598              1.970              4.215
 Vibration     5          0.602              1.956              3.656
 Vibration     6          0.603              1.952              3.541
 Vibration     7          0.612              1.923              2.943
 Vibration     8          0.629              1.868              2.338
 Vibration     9          0.634              1.851              2.211
 Vibration    10          0.650              1.802              1.912
 Vibration    11          0.664              1.759              1.715
 Vibration    12          0.668              1.747              1.667
 Vibration    13          0.699              1.656              1.365
 Vibration    14          0.748              1.518              1.050
 Vibration    15          0.768              1.466              0.955
 Vibration    16          0.770              1.460              0.945
 Vibration    17          0.870              1.217              0.622
 Vibration    18          0.897              1.157              0.561
 Vibration    19          0.921              1.108              0.515
 Vibration    20          0.945              1.059              0.472
 Vibration    21          0.976              0.998              0.423

 Optimization completed.
    -- Stationary point found.
 Normal termination of Gaussian 16 at Wed Feb 28 21:49:40 2018.
