 Gaussian 16, Revision A.03,
 Gaussian 16:  ES64L-G16RevA.03 25-Dec-2016

 ----------------------------------------------------------------------
 #p b3lyp empiricaldispersion=gd3bj 6-31g scrf=(pcm,solvent=water) opt
 freq=noraman
 ----------------------------------------------------------------------

 ---
 NS1
 ---
 Symbolic Z-matrix:
 Charge =  0 Multiplicity = 1

 SCF Done:  E(RB3LYP) =  -1764.96630878     A.U. after   14 cycles
 SCF Done:  E(RB3LYP) =  -1765.00204219     A.U. after   12 cycles
 SCF Done:  E(RB3LYP) =  -1765.01459444     A.U. after   14 cycles
 SCF Done:  E(RB3LYP) =  -1765.00933833     A.U. after   14 cycles
 SCF Done:  E(RB3LYP) =  -1765.01725624     A.U. after   13 cycles
 SCF Done:  E(RB3LYP) =  -1765.01947734     A.U. after   14 cycles
 SCF Done:  E(RB3LYP) =  -1765.02138597     A.U. after   13 cycles
 SCF Done:  E(RB3LYP) =  -1765.02310391     A.U. after   13 cycles
 SCF Done:  E(RB3LYP) =  -1765.02419341     A.U. after   12 cycles
 SCF Done:  E(RB3LYP) =  -1765.02560539     A.U. after   12 cycles
 SCF Done:  E(RB3LYP) =  -1765.03277982     A.U. after    9 cycles
 SCF Done:  E(RB3LYP) =  -1765.03278392     A.U. after    9 cycles
 SCF Done:  E(RB3LYP) =  -1765.03279080     A.U. after    9 cycles
 SCF Done:  E(RB3LYP) =  -1765.03279102     A.U. after    8 cycles
 SCF Done:  E(RB3LYP) =  -1765.03279106     A.U. after    8 cycles
 SCF Done:  E(RB3LYP) =  -1765.03279086     A.U. after    7 cycles
 SCF Done:  E(RB3LYP) =  -1765.03279083     A.U. after    6 cycles
 SCF Done:  E(RB3LYP) =  -1765.03279110     A.U. after    8 cycles
 SCF Done:  E(RB3LYP) =  -1765.03279087     A.U. after    8 cycles
 Optimization completed.
    -- Stationary point found.

 The electronic state is 1-A.
 Alpha  occ. eigenvalues --  -19.17356 -19.17174 -19.15479 -19.11925 -19.10810
 Alpha  occ. eigenvalues --  -19.10043 -14.43039 -14.41263 -14.35943 -14.35700
 Alpha  occ. eigenvalues --  -14.35025 -14.34671 -14.33959 -10.30504 -10.29555
 Alpha  occ. eigenvalues --  -10.29245 -10.29162 -10.27457 -10.27132 -10.26371
 Alpha  occ. eigenvalues --  -10.26350 -10.26048 -10.25880 -10.25136 -10.22888
 Alpha  occ. eigenvalues --  -10.22340 -10.22316 -10.21036 -10.20662 -10.20012
 Alpha  occ. eigenvalues --  -10.19853 -10.19822 -10.19684 -10.19625 -10.19194
 Alpha  occ. eigenvalues --  -10.18859 -10.18840  -1.07929  -1.05679  -1.04716
 Alpha  occ. eigenvalues --   -1.04204  -1.03933  -1.02734  -0.99867  -0.99061
 Alpha  occ. eigenvalues --   -0.95337  -0.95252  -0.91463  -0.91445  -0.87841
 Alpha  occ. eigenvalues --   -0.87552  -0.84692  -0.80138  -0.79515  -0.78910
 Alpha  occ. eigenvalues --   -0.78096  -0.76933  -0.76546  -0.72803  -0.70755
 Alpha  occ. eigenvalues --   -0.68183  -0.67350  -0.66560  -0.65539  -0.65123
 Alpha  occ. eigenvalues --   -0.63421  -0.62869  -0.60445  -0.60164  -0.59318
 Alpha  occ. eigenvalues --   -0.58257  -0.57864  -0.56756  -0.56630  -0.56017
 Alpha  occ. eigenvalues --   -0.54671  -0.53397  -0.52775  -0.52093  -0.51922
 Alpha  occ. eigenvalues --   -0.51632  -0.49789  -0.49489  -0.49106  -0.48669
 Alpha  occ. eigenvalues --   -0.48056  -0.47950  -0.47458  -0.46829  -0.46237
 Alpha  occ. eigenvalues --   -0.45791  -0.45438  -0.45079  -0.44338  -0.44094
 Alpha  occ. eigenvalues --   -0.43924  -0.42681  -0.42098  -0.41705  -0.41296
 Alpha  occ. eigenvalues --   -0.40938  -0.40742  -0.40589  -0.39723  -0.39573
 Alpha  occ. eigenvalues --   -0.38147  -0.37951  -0.37237  -0.36906  -0.36650
 Alpha  occ. eigenvalues --   -0.36219  -0.35847  -0.35401  -0.34750  -0.34005
 Alpha  occ. eigenvalues --   -0.33436  -0.32049  -0.31200  -0.30869  -0.30469
 Alpha  occ. eigenvalues --   -0.29120  -0.28568  -0.28446  -0.27254  -0.27085
 Alpha  occ. eigenvalues --   -0.26645  -0.26383  -0.25911  -0.25883  -0.25702
 Alpha  occ. eigenvalues --   -0.25259  -0.23770  -0.23338  -0.23085
 Alpha virt. eigenvalues --   -0.04585  -0.03617  -0.02986  -0.01110   0.01644
 Alpha virt. eigenvalues --    0.02893   0.04000   0.04219   0.04970   0.05024
 Alpha virt. eigenvalues --    0.06723   0.07173   0.08071   0.08207   0.09069

 Mulliken charges:
               1
     1  C    0.077808
     2  C    0.033919
     3  C    0.087896
     4  C    0.259038
     5  O   -0.538430
     6  N   -0.672288
     7  C    0.460654
     8  C    0.089068
     9  N   -0.456138
    10  C    0.282551
    11  N   -0.396325
    12  C    0.114340
    13  N   -0.459905
    14  C    0.427477
    15  N   -0.746851
    16  O   -0.638573
    17  O   -0.630483
    18  C   -0.253966
    19  H    0.186892
    20  H    0.180169
    21  C   -0.149089
    22  C   -0.099157
    23  C   -0.250963
    24  C   -0.256737
    25  C    0.127722
    26  C   -0.089267
    27  C   -0.164191
    28  C   -0.139604
    29  C    0.045498
    30  C   -0.124309
    31  C    0.445727
    32  N   -0.724118
    33  O   -0.531339
    34  C   -0.266346
    35  C   -0.076370
    36  C    0.499029
    37  N   -0.740171
    38  O   -0.603751
    39  O   -0.560715
    40  H    0.197804
    41  H    0.187481
    42  H    0.214550
    43  H    0.166592
    44  H    0.352334
    45  H    0.361230
    46  H    0.402666
    47  H    0.390466
    48  H    0.161679
    49  H    0.169058
    50  H    0.178844
    51  H    0.149310
    52  H    0.178135
    53  H    0.189432
    54  H    0.152918
    55  H    0.160034
    56  H    0.162962
    57  H    0.351219
    58  H    0.357019
    59  H    0.167904
    60  H    0.165075
    61  H    0.206246
    62  H    0.413410
    63  H    0.407383
    64  H    0.407544
 Sum of Mulliken charges =   0.00000

 Dipole moment (field-independent basis, Debye):
    X=             -9.5161    Y=              7.1730    Z=             -8.0818  Tot=             14.3987
 Quadrupole moment (field-independent basis, Debye-Ang):
   XX=           -361.6886   YY=           -164.9876   ZZ=           -203.5546
   XY=             25.7031   XZ=             -6.0150   YZ=            -20.5171

 1\1\GINC-HOLY7C01101\FOpt\RB3LYP\6-31G\C24H27N7O6\ROOT\28-Feb-2018\0\\
 #p b3lyp empiricaldispersion=gd3bj 6-31g scrf=(pcm,solvent=water) opt
 freq=noraman\\NS1\\0,1\C,-28.7737769407,-28.4690401838,2.877931846\C,-
 30.217013266,-28.9673651829,3.0328587794\C,-30.1622862086,-29.92008329
 99,4.245237984\C,-28.7591843036,-30.5471405775,4.1167362439\O,-27.9232
 715268,-29.4917636238,3.5532553583\N,-28.1749149633,-30.9877298349,5.3
 601451932\C,-27.8123111361,-32.293453706,5.6612766773\C,-27.2717452795
 ,-32.2465586168,6.9545817677\N,-27.2874586987,-30.9326548644,7.4428534

 Normal termination of Gaussian 16 at Wed Feb 28 19:48:42 2018.

 -----------------------------------------------------------------
 #P Geom=AllCheck Guess=TCheck SCRF=Check GenChk RB3LYP/6-31G Freq
 -----------------------------------------------------------------

 Structure from the checkpoint file:  "/scratch/dhuang9_NS1_bound/Gau-8167.chk"
 ---
 NS1
 ---
 Charge =  0 Multiplicity = 1

                         Standard orientation:
 ---------------------------------------------------------------------
 Center     Atomic      Atomic             Coordinates (Angstroms)
 Number     Number       Type             X           Y           Z
 ---------------------------------------------------------------------
      1          6           0       -1.459069    1.620128    0.680282
      2          6           0       -2.034700    1.602078    2.102809
      3          6           0       -3.161767    0.550057    2.043651
      4          6           0       -3.702553    0.717320    0.609084
      5          8           0       -2.538557    1.077121   -0.194495
      6          7           0       -4.307148   -0.465650    0.046409
      7          6           0       -5.627737   -0.575975   -0.367051
      8          6           0       -5.760825   -1.881683   -0.861482
      9          7           0       -4.540945   -2.565857   -0.767688
     10          6           0       -3.699265   -1.693136   -0.224958
     11          7           0       -6.603428    0.356636   -0.313844
     12          6           0       -7.776550   -0.101282   -0.804514
     13          7           0       -8.035417   -1.332326   -1.304852
     14          6           0       -7.032205   -2.257749   -1.346751
     15          7           0       -7.298144   -3.481839   -1.847254
     16          8           0       -2.625166    2.875731    2.515860
     17          8           0       -4.162511    0.756945    3.048488
     18          6           0       -0.219738    0.750795    0.481780
     19          1           0       -4.463613    1.502465    0.575310
     20          1           0       -1.271196    2.647218    0.354265
     21          6           0        1.063179    1.330750    1.134191
     22          6           0        2.196531    0.415287    0.955624
     23          6           0        1.474901    2.729640    0.588494
     24          6           0        3.211370   -0.222104    0.744681
     25          6           0        4.459899   -0.866439    0.485929
     26          6           0        5.609476   -0.077104    0.254511
     27          6           0        6.838574   -0.694391    0.012920
     28          6           0        6.940391   -2.087325   -0.006323
     29          6           0        5.802503   -2.882963    0.204282
     30          6           0        4.568028   -2.269687    0.458116
     31          6           0        5.975020   -4.367538    0.171759
     32          7           0        4.863725   -5.122716   -0.036114
     33          8           0        7.110394   -4.897783    0.321450
     34          6           0        1.673351    2.741736   -0.939939
     35          6           0        2.725613    3.775295   -1.379843
     36          6           0        4.182481    3.279656   -1.108431
     37          7           0        2.670242    3.978507   -2.889932
     38          8           0        4.860547    3.000910   -2.173857
     39          8           0        4.550606    3.162799    0.100541
     40          1           0       -1.291176    1.370723    2.863657
     41          1           0       -2.763803   -0.457865    2.178459
     42          1           0       -2.657697   -1.873490   -0.022312
     43          1           0       -8.607040    0.593399   -0.797318
     44          1           0       -8.225830   -3.692457   -2.179606
     45          1           0       -6.583617   -4.190150   -1.894474
     46          1           0       -2.942768    3.394105    1.748070
     47          1           0       -4.166682    1.724119    3.243883
     48          1           0       -0.404721   -0.249220    0.890014
     49          1           0       -0.063507    0.628364   -0.594566
     50          1           0        0.878092    1.446755    2.212250
     51          1           0        0.727758    3.477432    0.877710
     52          1           0        2.418227    3.003111    1.067477
     53          1           0        5.514823    1.005111    0.270278
     54          1           0        7.719987   -0.086878   -0.161048
     55          1           0        7.890063   -2.576107   -0.186500
     56          1           0        3.682014   -2.858396    0.666471
     57          1           0        4.955178   -6.127601   -0.043717
     58          1           0        3.965288   -4.729200   -0.264339
     59          1           0        2.001528    1.752082   -1.281341
     60          1           0        0.721199    2.961711   -1.439500
     61          1           0        2.553442    4.739244   -0.897865
     62          1           0        2.633716    4.964017   -3.155777
     63          1           0        3.604764    3.555700   -3.179793
     64          1           0        1.889414    3.490552   -3.333592
 ---------------------------------------------------------------------

 SCF Done:  E(RB3LYP) =  -1765.03279087     A.U. after    1 cycles
